# LAMMPS data file 
# Created using atb2lammps 
# https://github.com/simongravelle/atb2lammps

11 atoms
10 bonds
18 angles
18 dihedrals

3 atom types
3 bond types
4 angle types
2 dihedral types

-25 25 xlo xhi
-25 25 ylo yhi
-25 25 zlo zhi

Atoms

1 1 2 -0.112 1.4541917 -0.8682708 1.1690573 
2 1 3 0.385 1.307481 -0.23357588 -0.00019234566 
3 1 2 -0.112 1.2887715 -1.1375582 -0.98944145 
4 1 2 -0.112 2.3489048 0.5872199 -0.18188663 
5 1 1 0.064 2.780403e-06 0.59535325 -1.6304692e-05 
6 1 2 -0.081 -0.0023403494 1.3780805 -1.103362 
7 1 2 -0.081 0.0023389987 1.3781631 1.1032697 
8 1 3 0.385 -1.3074796 -0.23356831 0.00019243144 
9 1 2 -0.112 -1.2887722 -1.1374799 0.98951 
10 1 2 -0.112 -2.348908 0.5872331 0.18185632 
11 1 2 -0.112 -1.4541891 -0.86836857 -1.1689929 

Bonds

1 1 1 2 
2 1 2 3 
3 1 2 4 
4 3 2 5 
5 2 5 6 
6 2 5 7 
7 3 5 8 
8 1 8 9 
9 1 8 10 
10 1 8 11 

Angles

1 4 1 2 3 
2 4 1 2 4 
3 3 1 2 5 
4 4 3 2 4 
5 3 3 2 5 
6 3 4 2 5 
7 1 2 5 6 
8 1 2 5 7 
9 2 2 5 8 
10 4 6 5 7 
11 1 6 5 8 
12 1 7 5 8 
13 3 5 8 9 
14 3 5 8 10 
15 3 5 8 11 
16 4 9 8 10 
17 4 9 8 11 
18 4 10 8 11 

Dihedrals

1 2 1 2 5 6 
2 2 1 2 5 7 
3 2 1 2 5 8 
4 1 2 5 8 9 
5 2 2 5 8 10 
6 2 2 5 8 11 
7 2 3 2 5 6 
8 2 3 2 5 7 
9 1 3 2 5 8 
10 2 4 2 5 6 
11 2 4 2 5 7 
12 2 4 2 5 8 
13 2 6 5 8 9 
14 2 6 5 8 10 
15 2 6 5 8 11 
16 2 7 5 8 9 
17 2 7 5 8 10 
18 2 7 5 8 11 
